150
(CPA-8)2.LOG	Energy:    -259.6483414
O         -1.16590        0.43527       -1.54021
O         -3.21575        1.01904       -0.31412
C          0.20725        5.98428        1.93775
O         -2.61437       -1.44025       -0.48595
C         -4.07633        4.05023        0.10819
C          2.84020       -2.57198       -2.95374
O         -1.23131       -0.02261        1.02417
C         -1.40978       -0.56688       -4.70075
C         -1.58394       -4.27555       -1.24354
C         -1.37077        1.53977        3.60913
C         -0.65049        3.74162        2.67746
C         -5.03456       -0.03954        0.85299
C         -5.46536        0.52706        3.16823
C         -1.93169        4.94782        1.06082
C         -0.80689        4.87160        1.88022
C         -4.80854       -1.39414       -1.43674
C         -2.72413        2.81432        1.86520
C         -4.03887        0.92628        0.81435
C         -5.60606       -0.93558       -0.23104
C         -2.88644        3.93160        1.02705
C         -6.81268       -0.25350       -0.93963
C         -1.59626        2.71814        2.69772
C         -5.70910       -0.26853        2.05751
C         -4.52637        1.55195        3.07325
C         -2.92745       -2.17335       -2.76999
C         -3.45616       -1.66735       -1.57403
C         -7.05258       -1.10543       -2.19869
C         -3.77702        1.75760        1.90996
C         -5.17368       -2.11075       -3.71987
C         -1.46083       -2.38739       -2.92249
C         -5.65686       -1.57902       -2.53233
C          0.58867       -3.42775       -2.19284
C         -3.81895       -2.41626       -3.82078
C         -0.80211       -3.34298       -2.13357
C          0.65313       -1.72888       -3.87221
C         -0.73287       -1.59681       -3.82952
C          1.33693       -2.59752       -3.02372
C         -6.10853       -2.12782        0.62962
C         -6.61255       -1.47428        1.93047
P         -1.95629        0.01479       -0.27518
H         -0.15259        0.25554       -1.41494
H          0.04621        6.71333        1.13997
H          0.14759        6.51657        2.89278
H          1.22310        5.59002        1.84260
H         -4.13239        5.05271       -0.32223
H         -5.01244        3.84964        0.63789
H         -4.00336        3.33040       -0.71352
H          3.15389       -1.78307       -2.25714
H          3.24295       -3.52183       -2.58984
H          3.28887       -2.35114       -3.92656
H         -1.97072        0.14393       -4.08448
H         -0.66761       -0.01259       -5.27963
H         -2.11431       -1.01575       -5.40550
H         -2.39407       -4.75937       -1.79777
H         -2.03313       -3.73425       -0.40571
H         -0.93376       -5.05482       -0.83764
H         -1.90827        0.65719        3.26464
H         -0.30582        1.29255        3.63617
H         -1.68731        1.76400        4.63537
H          0.23207        3.65043        3.30769
H         -5.98864        0.34818        4.10282
H         -2.07432        5.82574        0.43465
H         -6.51593        0.75966       -1.23093
H         -7.68612       -0.17716       -0.28610
H         -4.32646        2.19043        3.92880
H         -7.50788       -0.53847       -3.01504
H         -7.71396       -1.95431       -1.98576
H         -5.83639       -2.27208       -4.56482
H          1.09736       -4.15650       -1.56741
H         -3.42307       -2.83374       -4.74166
H          1.21821       -1.10638       -4.56193
H         -6.86826       -2.72031        0.11201
H         -5.25612       -2.78015        0.84896
H         -6.53408       -2.13911        2.79528
H         -7.66429       -1.17463        1.84649
O          1.16619        0.43639        1.53982
O          3.21591        1.01960        0.31350
C         -0.21045        5.98024       -1.94204
O          2.61483       -1.43966        0.48668
C          4.07438        4.05084       -0.11018
C         -2.84003       -2.56987        2.95491
O          1.23161       -0.02308       -1.02430
C          1.40978       -0.56350        4.70083
C          1.58428       -4.27444        1.24612
C          1.37199        1.53645       -3.61073
C          0.64978        3.73827       -2.68060
C          5.03515       -0.03928       -0.85262
C          5.46650        0.52625       -3.16802
C          1.92925        4.94620       -1.06388
C          0.80489        4.86871       -1.88374
C          4.80886       -1.39268        1.43782
C          2.72385        2.81305       -1.86711
C          4.03926        0.92635       -0.81475
C          5.60654       -0.93466        0.23201
C          2.88488        3.93080       -1.02936
C          6.81291       -0.25200        0.94048
C          1.59635        2.71556       -2.70000
C          5.71007       -0.26875       -2.05684
C          4.52724        1.55096       -3.07383
C          2.92760       -2.17119        2.77127
C          3.45647       -1.66594        1.57507
C          7.05272       -1.10325        2.20002
C          3.77744        1.75699       -1.91090
C          5.17366       -2.10783        3.72147
C          1.46097       -2.38515        2.92375
C          5.65699       -1.57682        2.53367
C         -0.58845       -3.42611        2.19473
C          3.81894       -2.41336        3.82237
C          0.80233       -3.34130        2.13545
C         -0.65305       -1.72608        3.87294
C          0.73294       -1.59398        3.83021
C         -1.33677       -2.59535        3.02503
C          6.10939       -2.12726       -0.62792
C          6.61373       -1.47426       -1.92891
P          1.95660        0.01519        0.27503
H          0.15300        0.25638        1.41477
H         -0.04816        6.71183       -1.14684
H         -0.15377        6.50968       -2.89883
H         -1.22565        5.58523       -1.84313
H          4.12936        5.05352        0.31993
H          5.01082        3.85097       -0.63955
H          4.00186        3.33121        0.71175
H         -3.15360       -1.78177        2.25736
H         -3.24280       -3.52014        2.59213
H         -3.28877       -2.34782        3.92742
H          1.97142        0.14649        4.08427
H          0.66751       -0.00835        5.27876
H          2.11367       -1.01205        5.40645
H          2.39425       -4.75800        1.80081
H          2.03369       -3.73366        0.40807
H          0.93413       -5.05390        0.84052
H          1.90934        0.65424       -3.26503
H          0.30712        1.28899       -3.63853
H          1.68947        1.75990       -4.63685
H         -0.23246        3.64608       -3.31114
H          5.99013        0.34705       -4.10236
H          2.07086        5.82446       -0.43798
H          6.51591        0.76125        1.23123
H          7.68646       -0.17583        0.28708
H          4.32740        2.18892       -3.92978
H          7.50780       -0.53581        3.01616
H          7.71424       -1.95216        1.98764
H          5.83625       -2.26857        4.56663
H         -1.09708       -4.15533        1.56979
H          3.42292       -2.83023        4.74346
H         -1.21819       -1.10309        4.56216
H          6.86903       -2.71943       -0.10981
H          5.25711       -2.77977       -0.84722
H          6.53574       -2.13952       -2.79344
H          7.66537       -1.17433       -1.84469
