3
CO2_opt.out	Energy: -118333.2167469
C          0.00000        0.00000        0.00000
O          0.00000        0.00000        1.16270
O          0.00000        0.00000       -1.16270
