115
int-2.out	Energy: -2351601.4298666
N         -0.36672        2.34289        0.30125
O         -0.18214        3.93952        3.47493
O         -1.12869        4.80163       -0.44439
C          1.56727        3.79335        0.64575
O         -2.35767        2.64002        1.28261
O         -0.93497        5.56975        1.63799
O          0.57091        1.96037        2.88823
C         -3.60361        0.69903       -0.22772
C         -2.21737        0.84174       -0.27912
C         -1.42674       -0.06732       -0.97971
C          0.15489        3.05915        2.57011
C          0.12580        3.45462        1.06927
C         -4.23249       -0.36286       -0.87107
C         -3.42397       -1.27299       -1.57125
C         -0.72931        4.69857        0.81382
C         -1.66078        1.99569        0.49970
C         -2.04609       -1.13212       -1.62134
H          0.28100        1.83640       -0.30544
H         -0.54210        4.74629        3.02979
H         -1.63175        5.62821       -0.51926
H          2.22816        2.95079        0.85969
H          1.92114        4.67155        1.19147
H          1.60126        3.99051       -0.42763
H         -4.16020        1.42601        0.35076
H         -0.34570        0.01561       -1.01542
N         -4.00653       -2.42236       -2.27192
O         -3.33850       -3.44373       -2.29460
O         -5.08831       -2.27893       -2.80167
O          2.24009        0.39998        1.74834
O          3.94730       -0.16964        0.14869
O          1.70738        0.81607       -0.77504
C         -3.64274       -0.13894        3.01453
O          1.80061       -1.53904        0.09664
C         -0.78684       -3.40821        0.45543
C          1.14540       -0.78222        4.36695
C          2.74401        1.96236       -3.54689
C          6.42616        1.65217       -0.04902
C          3.45649       -3.13698        0.79400
C         -0.92266       -2.39133        1.56096
C          1.98771       -3.64114        3.10206
C          4.59293        1.82724       -1.80057
C         -1.21952       -0.50518        3.59247
C          1.48245       -2.73696        2.16271
C          5.26587        3.80932       -0.59662
C          3.22882       -4.25097        2.93389
C          0.17195       -2.05712        2.37965
C          4.35493        4.58613       -1.30619
C         -2.31873       -0.82598        2.79928
C         -2.15352       -1.78322        1.79933
C          5.40497        2.43928       -0.83162
C          4.42253       -0.58958       -1.09541
C          4.38452       -3.13700       -0.40833
C          4.53771       -1.94863       -1.33828
C          3.65950        2.59217       -2.52641
C          3.56414        3.95819       -2.26952
C          0.02041       -1.12280        3.41896
C          4.72617        0.36607       -2.07227
C          4.89004       -2.38171       -2.61972
C          5.14774       -0.10234       -3.32170
C          2.25046       -2.49038        1.01871
C          5.21098       -1.46396       -3.61095
C          3.95965       -3.98834        1.78366
C          4.81634       -3.88981       -2.69682
C          5.33812       -4.47695        1.40196
C          4.00609       -4.24302       -1.43475
C          5.73159       -3.49881        0.28032
P          2.34992       -0.03251        0.25669
C          4.23133        6.06782       -1.05740
H          1.45702        0.94902        2.06894
H         -3.58552        0.90741        2.69262
H         -3.92452       -0.14669        4.07118
H         -4.43514       -0.63814        2.44835
H         -1.74764       -3.58800       -0.03351
H         -0.40726       -4.36067        0.83870
H          1.03738        0.24552        4.72036
H          1.12556       -1.44377        5.24036
H          1.93815        2.65232       -3.80790
H          3.27457        1.70839       -4.46957
H          5.94388        1.05175        0.72822
H          7.14021        2.32300        0.43329
H          1.39740       -3.83867        3.99189
H         -1.32347        0.24665        4.37189
H          5.89569        4.27946        0.15554
H          3.62163       -4.91360        3.69916
H         -3.00400       -2.05888        1.17804
H          2.83988        4.54802       -2.82917
H          5.40537        0.62732       -4.08350
H          5.49618       -1.79873       -4.60372
H          5.81894       -4.33330       -2.66432
H          4.34013       -4.23688       -3.61754
H          5.30066       -5.50999        1.03528
H          6.03436       -4.45885        2.24455
H          4.20547       -5.24772       -1.05204
H          2.93492       -4.16706       -1.64959
H          6.45948       -3.90822       -0.42571
H          6.15420       -2.58742        0.71652
H          3.18508        6.38706       -1.08144
H          4.76316        6.64041       -1.82420
H          4.65078        6.34358       -0.08701
H          2.12302       -0.88425        3.89396
H         -0.08165       -3.06322       -0.30859
H          2.30056        1.04732       -3.14840
H          6.98011        0.96740       -0.69709
H         -1.47296       -1.88007       -2.15616
O         -5.56212       -0.59535       -0.81086
C         -6.35537        0.33161       -0.11114
H         -6.08555        0.38650        0.95086
H         -6.29840        1.33069       -0.55692
C         -7.78507       -0.16108       -0.19273
C         -8.32844       -0.33905       -1.61813
F         -8.56480        0.75509        0.42573
F         -7.91816       -1.33969        0.44426
F         -7.79894       -1.40121       -2.20292
F         -9.65184       -0.48062       -1.57826
F         -8.03946        0.74983       -2.34023
