112
INT-3.LOG	Energy:    -463.2671849
O         -2.48814        3.28840       -0.83648
N          0.94350        3.38696       -1.93620
O         -0.52663        3.15588        0.33415
O          0.83528        1.16897       -1.41254
C         -1.10542        3.87960       -3.30358
N          7.08256        1.89427       -0.46352
C          5.64196        1.94750       -0.74496
C         -1.14516        3.34791       -0.83933
C          2.95775        2.17204       -1.33044
C         -0.47262        3.57646       -1.98279
C          1.48070        2.21158       -1.57837
C          3.87415        2.96014       -2.02421
C          4.72929        1.13368       -0.05110
C          3.37824        1.25922       -0.36765
C          5.22513        2.83159       -1.72992
O          7.83005        2.17219       -1.38609
O          7.43226        1.60988        0.66284
H         -2.80565        3.34633        0.07952
H          1.55191        4.19528       -1.91434
H         -0.84162        2.29546        0.72204
H         -0.66309        4.76848       -3.76853
H         -0.98398        3.04473       -4.00331
H         -2.17264        4.05749       -3.16782
H          3.55192        3.63853       -2.80697
H          2.61999        0.64297        0.09931
H          5.98191        3.40052       -2.25608
O         -1.53656        0.40280       -1.58778
O         -3.56861       -0.02437       -0.28961
C         -4.25038        6.24675        1.02723
O         -1.56212       -1.56794        0.06807
C         -6.19022        1.79732       -0.28325
C          4.66114       -1.44686       -2.09439
O         -1.43946        0.77494        0.99015
C          0.05192       -0.88891       -4.00328
C          0.77489       -3.72200        0.16350
C         -2.78607        2.09966        3.48042
C         -3.57770        4.11912        2.21286
C         -4.47527       -1.79375        1.04637
C         -5.40694       -1.33014        3.23054
C         -5.21686        3.98460        0.47328
C         -4.36447        4.76272        1.25787
C         -3.19446       -2.99691       -0.95372
C         -4.49289        1.97170        1.59630
C         -4.24277       -0.43990        0.86122
C         -4.28424       -2.96046        0.09933
C         -5.28482        2.59959        0.61529
C         -5.54146       -3.18836       -0.78703
C         -3.63578        2.73460        2.40823
C         -5.02253       -2.23763        2.25345
C         -5.23446        0.03117        2.99142
C         -0.99279       -2.76403       -1.95401
C         -1.91700       -2.45609       -0.94840
C         -5.06402       -4.14895       -1.89180
C         -4.63799        0.50353        1.81713
C         -2.72825       -4.06604       -3.07334
C          0.42884       -2.30924       -1.92099
C         -3.60865       -3.76913       -2.04261
C          2.65355       -2.53733       -1.00684
C         -1.42368       -3.58441       -3.00347
C          1.29222       -2.82941       -0.93651
C          2.30109       -1.17953       -2.94191
C          0.93656       -1.47590       -2.92995
C          3.17984       -1.71501       -2.00638
C         -4.13338       -4.12654        1.11774
C         -5.07148       -3.74828        2.27912
P         -1.95972       -0.01448       -0.15337
H         -0.59120        0.81364       -1.60201
H         -5.22393        6.68688        0.79749
H         -3.83937        6.75513        1.90210
H         -3.58779        6.44979        0.17910
H         -6.85810        2.45472       -0.84330
H         -6.79709        1.09086        0.29021
H         -5.59790        1.22007       -1.00052
H          4.85733       -0.45503       -2.51321
H          5.14534       -1.51344       -1.11584
H          5.14744       -2.18079       -2.74553
H         -0.97163       -0.74918       -3.65334
H          0.44441        0.08120       -4.32142
H          0.02146       -1.53583       -4.88708
H          0.20439       -4.56240       -0.24387
H          0.10908       -3.16849        0.83305
H          1.60130       -4.12055        0.75620
H         -2.37734        1.14609        3.14340
H         -1.95561        2.75934        3.74304
H         -3.36991        1.92247        4.38995
H         -2.89595        4.70582        2.82407
H         -5.83397       -1.67191        4.16849
H         -5.82908        4.46685       -0.28514
H         -5.83104       -2.22970       -1.23060
H         -6.39010       -3.56758       -0.21069
H         -5.55134        0.75883        3.73280
H         -5.62368       -4.03521       -2.82402
H         -5.16388       -5.19604       -1.58058
H         -3.04699       -4.66566       -3.92060
H          3.32779       -2.98385       -0.27681
H         -0.70981       -3.82971       -3.78440
H          2.68652       -0.51456       -3.71308
H         -4.35806       -5.09835        0.66933
H         -3.09691       -4.14545        1.47129
H         -4.74706       -4.16013        3.23839
H         -6.09213       -4.10843        2.10097
O          5.20337        0.23436        0.83307
C          4.27180       -0.58631        1.50215
H          3.55298       -1.04418        0.81404
H          3.74115       -0.03206        2.28367
C          5.05367       -1.72224        2.12457
C          6.17679       -1.30387        3.08378
F          4.18122       -2.48397        2.82070
F          5.60858       -2.48890        1.15920
F          7.19373       -0.77373        2.42209
F          6.60727       -2.36542        3.76236
F          5.70175       -0.40626        3.95268
