112
Int-5S.out	Energy: -2233270.0044459
O          0.24475       -5.38948       -0.24187
N         -0.84429       -3.12744        0.73916
O          2.22029       -4.42883       -0.62398
O         -0.82369       -0.86329        0.88411
C          1.31160       -3.13837        1.96612
N         -7.16246       -1.70217        0.51098
C         -5.69539       -1.74591        0.56691
C          0.98472       -4.43893       -0.14060
C         -2.94262       -1.91213        0.73913
C          0.59633       -3.17843        0.60979
C         -1.44485       -1.93305        0.79536
C         -3.54049       -0.73280        0.30140
C         -5.10908       -2.93069        0.99299
C         -3.72723       -3.01268        1.09194
C         -4.92440       -0.63396        0.20648
O         -7.73508       -2.75211        0.29162
O         -7.70518       -0.63230        0.71162
H          0.72376       -0.48014        1.06116
H         -1.34531       -3.97040        0.47885
H          2.60061       -3.52260       -0.59012
H          1.09378       -4.05376        2.52277
H          2.39079       -3.04810        1.82328
H          0.97849       -2.27658        2.54661
H         -2.92077        0.10934        0.01009
H         -3.27329       -3.92545        1.46298
O          2.95175       -1.70867       -0.56376
O          3.97074        0.41265        0.30452
C          4.06505       -2.62206        5.74112
O          1.83248        0.60158       -1.07500
C          6.31938        0.29956        2.31928
C         -2.11402       -4.15195       -2.27605
O          1.69373       -0.24537        1.20967
C          2.63163       -3.04802       -3.49502
C         -0.74838        0.67032       -2.59366
C          1.59506        1.34292        3.88878
C          2.91289       -0.59586        4.77589
C          3.81264        2.76838       -0.14205
C          3.65768        4.32613        1.71105
C          5.13326       -1.09168        4.04027
C          4.04132       -1.41155        4.84348
C          3.39731        1.65092       -2.54208
C          3.95581        0.79575        3.10487
C          3.89808        1.72620        0.76973
C          3.88246        2.78972       -1.66261
C          5.11016       -0.00277        3.16856
C          5.33657        2.94117       -2.19240
C          2.84992        0.50533        3.92356
C          3.65231        4.07020        0.34673
C          3.79448        3.26373        2.60165
C          1.99656       -0.17708       -3.34459
C          2.40260        0.70876       -2.34157
C          5.22703        2.64620       -3.70239
C          3.89399        1.94333        2.15332
C          3.70853        0.79649       -4.78299
C          0.93346       -1.18992       -3.07793
C          4.08717        1.65355       -3.75726
C         -1.33573       -1.75528       -2.46982
C          2.65250       -0.09065       -4.57750
C         -0.36563       -0.78289       -2.72240
C          0.24226       -3.49922       -2.89753
C          1.24116       -2.56275       -3.16377
C         -1.05341       -3.11645       -2.54765
C          3.08201        4.09271       -1.95460
C          3.44442        5.03686       -0.79566
P          2.61735       -0.36290       -0.04721
H          0.89262       -2.33995       -0.02050
H          5.08789       -2.89888        6.00689
H          3.50752       -2.44266        6.66387
H          3.60827       -3.48410        5.24306
H          6.54565        1.36946        2.31618
H          6.15217       -0.00509        1.28151
H          7.19440       -0.23643        2.69290
H         -2.93140       -3.73353       -1.67923
H         -2.54965       -4.52038       -3.21043
H         -1.68796       -5.01139       -1.74926
H          3.38506       -2.45447       -2.97098
H          2.74277       -4.09260       -3.19709
H          2.83883       -2.98000       -4.56764
H         -0.51375        1.03810       -1.58914
H         -1.82041        0.79841       -2.76338
H         -0.21043        1.29771       -3.30861
H          1.70659        2.25852        4.47922
H          1.34349        1.63569        2.86761
H          0.75428        0.78267        4.30521
H          2.05261       -0.82566        5.40171
H          3.53959        5.33977        2.08208
H          6.02989       -1.70558        4.09069
H          5.96361        2.18317       -1.71139
H          5.75833        3.92501       -1.96850
H          3.80027        3.44584        3.67218
H          6.15125        2.23988       -4.12159
H          4.98699        3.55355       -4.26973
H          4.23498        0.80495       -5.73261
H         -2.34462       -1.43531       -2.21361
H          2.34206       -0.75827       -5.37536
H          0.49024       -4.55786       -2.93667
H          3.30653        4.50167       -2.94347
H          2.01287        3.85776       -1.91795
H          2.66243        5.77081       -0.58411
H          4.36403        5.59536       -1.00904
H         -5.75057       -3.76658        1.24475
O         -5.48360        0.49399       -0.31294
C         -5.72748        1.51787        0.63552
H         -6.31442        1.14102        1.47733
H         -4.78887        1.96077        0.98863
C         -6.53472        2.57352       -0.08967
C         -6.86324        3.77350        0.80379
F         -5.84654        3.04286       -1.15275
F         -7.69869        2.06150       -0.52753
F         -7.54869        3.36966        1.87542
F         -5.73153        4.34929        1.22136
F         -7.58296        4.66930        0.14224
