40
S17.out	Energy: -1098452.2959943
N         -3.40112        0.16664       -0.14066
O         -4.04952       -2.64301       -0.34066
O         -6.92441        0.33841       -0.70057
C         -5.01599       -0.38903        1.65723
O         -2.12785       -1.45446        0.80655
O         -5.28951        1.84782       -0.63212
O         -6.13034       -2.06519       -0.79425
C         -1.16629        1.97762        0.16412
C         -1.05170        0.59089        0.24836
C          0.19725       -0.02732        0.29272
C         -5.01195       -1.76916       -0.40730
C         -4.73731       -0.34868        0.13771
C         -0.00920        2.74282        0.09677
C          1.23097        2.12602        0.09988
C         -5.69130        0.71896       -0.47336
C         -2.24242       -0.31188        0.33592
C          1.36438        0.73106        0.21452
H         -3.43041        1.09616       -0.54903
H         -3.23931       -2.27883        0.14457
H         -6.93422       -0.65987       -0.73584
H         -6.03380       -0.74150        1.83611
H         -4.90489        0.61780        2.06503
H         -4.30947       -1.06183        2.14744
H         -2.13171        2.47242        0.18507
H          0.22488       -1.10470        0.39898
N          2.40942        2.99668       -0.02682
O          2.31232        4.11414        0.44817
O          3.37301        2.55870       -0.61812
H         -0.04256        3.82449        0.04848
O          2.60224        0.20890        0.28684
C          2.72546       -1.18647        0.43310
H          2.26473       -1.54187        1.36270
H          2.29920       -1.72141       -0.42226
C          4.20753       -1.49214        0.51478
C          5.03095       -1.02716       -0.69565
F          4.33564       -2.83495        0.60242
F          4.74415       -0.93357        1.61526
F          5.17461        0.28845       -0.69611
F          6.23272       -1.59642       -0.66480
F          4.40949       -1.40127       -1.81993
