112
TS-3Rb.out	Energy: -2233230.8978174
O          1.96144       -2.73813        2.40974
N         -1.25532       -2.78051        0.78214
O         -0.11687       -2.93417        3.11398
O         -1.54550       -1.27457       -0.88737
C          0.90573       -3.28743       -0.37111
N         -7.72269       -2.31892        0.50196
C         -6.26550       -2.22150        0.35274
C          0.72405       -2.77704        2.09603
C         -3.50975       -2.18183        0.10520
C          0.17777       -2.63042        0.80086
C         -2.01549       -2.03659       -0.05653
C         -4.27100       -1.13649       -0.41332
C         -5.51133       -3.26612        0.86553
C         -4.12836       -3.25801        0.74060
C         -5.65996       -1.12870       -0.29402
O         -8.41900       -1.79368       -0.34105
O         -8.13205       -2.95380        1.45975
H          0.57671       -1.28120        0.49265
H         -1.69871       -3.24949        1.55850
H          0.38554       -2.80650        3.93375
H          1.98903       -3.17399       -0.28564
H          0.66616       -4.35463       -0.42747
H          0.59130       -2.80266       -1.29828
H         -3.73461       -0.34189       -0.91796
H         -6.03495       -4.07705        1.35694
H         -3.55616       -4.10318        1.10682
H          2.62206       -2.20995        1.67648
O          1.13348       -0.29858        0.08402
O          3.29885        0.33273       -0.97547
C          2.63082       -5.42687       -3.30830
O          2.94540        0.93640        1.46375
C          3.80642       -0.57154       -3.85245
C         -2.45981       -1.14676        4.06375
O          3.30259       -1.45895        0.89112
C         -1.19914        1.78552        0.19953
C          1.81216        1.52992        4.29094
C          5.70822       -3.26628        0.02905
C          4.19712       -4.26735       -1.70104
C          5.30783        1.54111       -0.45853
C          7.46124        0.47004       -0.74244
C          3.29175       -3.00185       -3.51558
C          3.39462       -4.21559       -2.83851
C          3.32592        3.07906        0.47027
C          4.73964       -1.92521       -1.91105
C          4.69443        0.40417       -0.96099
C          4.74151        2.89054       -0.04912
C          3.94937       -1.85501       -3.07301
C          4.72581        3.88046       -1.25053
C          4.87287       -3.14416       -1.22204
C          6.69828        1.54402       -0.30510
C          6.82267       -0.63192       -1.30847
C          1.22206        2.61976        1.61004
C          2.49940        2.22745        1.18934
C          3.84468        5.04903       -0.77484
C          5.42923       -0.70391       -1.40176
C          1.61248        4.78847        0.56636
C          0.28725        1.66037        2.26810
C          2.85411        4.34954        0.12666
C         -0.31894        0.20792        4.09862
C          0.81464        3.92483        1.31197
C          0.57195        1.12568        3.53410
C         -1.74281        0.36103        2.18427
C         -0.88153        1.27475        1.58262
C         -1.48268       -0.18382        3.44098
C          5.81668        3.33935        0.97999
C          7.14184        2.80319        0.40494
P          2.62361       -0.21087        0.37571
H          2.61039       -5.48405       -4.39966
H          3.07354       -6.34908       -2.92482
H          1.59183       -5.38733       -2.96334
H          3.10090        0.10488       -3.36063
H          3.43502       -0.77501       -4.85906
H          4.76270       -0.04803       -3.93709
H         -3.30833       -0.61311        4.50385
H         -2.86137       -1.83376        3.31163
H         -1.99397       -1.73987        4.85470
H         -1.58601        2.80956        0.22255
H         -0.30746        1.77224       -0.43077
H         -1.94118        1.13861       -0.27280
H          1.97179        2.61029        4.23653
H          2.69998        1.04723        3.87120
H          1.73276        1.24682        5.34292
H          6.77197       -3.37737       -0.20641
H          5.59277       -2.38685        0.66485
H          5.40473       -4.14758        0.59933
H          4.29259       -5.20670       -1.16008
H          8.54145        0.47812       -0.63170
H          2.68268       -2.94376       -4.41527
H          4.25031        3.38401       -2.10303
H          5.73308        4.18200       -1.55072
H          7.40622       -1.47778       -1.65913
H          3.35750        5.57737       -1.59850
H          4.43086        5.78912       -0.21638
H          1.25343        5.78031        0.30886
H         -0.10311       -0.19230        5.08845
H         -0.16768        4.24445        1.64688
H         -2.64551        0.06266        1.65320
H          5.81262        4.42164        1.13698
H          5.60560        2.85386        1.93850
H          7.88859        2.60188        1.17759
H          7.58907        3.51616       -0.29829
O         -6.43594       -0.11560       -0.72649
C         -5.79013        1.01075       -1.26925
H         -5.09306        1.46287       -0.55304
H         -5.25675        0.76619       -2.19479
C         -6.88980        2.00524       -1.58443
C         -6.33854        3.31443       -2.15857
F         -7.74311        1.49381       -2.49135
F         -7.57894        2.31396       -0.46872
F         -5.52489        3.89114       -1.27001
F         -5.63905        3.06305       -3.26829
F         -7.32383        4.15196       -2.44912
