112
TS-4R.out	Energy: -2233257.9723535
O          0.86470        1.64652        3.50527
N         -0.44627        2.15623        0.66607
O         -1.24423        2.35284        3.54278
O         -2.54587        2.26029        1.51788
C          1.45597        3.58371        1.39848
N         -3.83752       -1.89329       -3.12459
C         -3.32199       -0.89911       -2.17444
C         -0.09834        2.31058        3.03056
C         -2.23641        0.90794       -0.40734
C          0.05751        3.07097        1.70098
C         -1.71254        1.81572        0.64330
C         -1.38276        0.12708       -1.18608
C         -4.19324       -0.11166       -1.40360
C         -3.62424        0.79293       -0.50851
C         -1.94530       -0.78733       -2.06589
O         -4.84973       -1.62281       -3.73485
O         -3.18301       -2.91425       -3.24742
H          1.55421        1.12618        2.71422
H          0.29712        1.73498        0.03733
H         -2.05350        2.44770        2.50322
H          2.22137        2.81831        1.51683
H          1.51251        3.95824        0.37390
H          1.68322        4.40155        2.08609
H         -0.30232        0.17986       -1.08944
H         -4.23861        1.40244        0.14166
O          2.20844        0.43056        1.95241
O          3.94826        0.17732        0.24516
C          3.81189        6.50561       -0.11335
O          1.87144       -1.27407        0.03479
C          6.31444        2.15052        0.23756
C         -3.52301       -0.30271        3.05529
O          1.64411        1.13602       -0.49550
C          1.21675       -1.29987        4.37661
C         -0.65706       -3.11848        0.01125
C          2.53125        2.68701       -3.11812
C          3.26534        4.54773       -1.60514
C          4.58380       -1.36279       -1.47221
C          5.18691       -0.54531       -3.67076
C          5.01853        4.28742       -0.00060
C          4.04422        5.09208       -0.58244
C          3.57831       -2.89785        0.47374
C          4.42426        2.43789       -1.43515
C          4.40087       -0.05470       -1.04883
C          4.49959       -2.67578       -0.71283
C          5.22707        2.96854       -0.41266
C          5.86307       -3.07406       -0.07975
C          3.43099        3.23399       -2.03771
C          4.93563       -1.60078       -2.80452
C          5.05299        0.76060       -3.20441
C          1.58628       -2.80034        1.86971
C          2.34948       -2.34006        0.78981
C          5.51691       -4.23011        0.87845
C          4.63284        1.03461       -1.89851
C          3.38591       -4.35471        2.39861
C          0.26799       -2.17472        2.18046
C          4.11432       -3.87509        1.31831
C         -2.01599       -1.68814        1.56806
C          2.11868       -3.83095        2.65001
C         -0.80116       -2.30721        1.27495
C         -1.12089       -0.81601        3.61000
C          0.10460       -1.43794        3.36628
C         -2.19348       -0.93196        2.72739
C          4.16343       -3.64705       -1.88151
C          4.94241       -3.08595       -3.08514
P          2.34743        0.21616        0.45750
H         -0.64084        3.91406        1.74720
H          2.87034        6.58444        0.44149
H          4.61539        6.84256        0.54516
H          3.74950        7.19778       -0.95768
H          6.99874        2.79446        0.79409
H          6.89159        1.59578       -0.50746
H          5.88885        1.42102        0.93311
H         -4.07387       -0.04652        2.14527
H         -4.14424       -0.99140        3.63744
H         -3.38929        0.60779        3.64491
H          1.01899       -0.45486        5.03805
H          1.30292       -2.20206        4.99149
H          2.17891       -1.13818        3.88587
H          0.02702       -2.63088       -0.69183
H         -1.62194       -3.24298       -0.48746
H         -0.24786       -4.11048        0.22448
H          3.05025        2.60322       -4.07793
H          2.16714        1.69480       -2.84294
H          1.67181        3.34598       -3.26380
H          2.49797        5.16240       -2.07306
H          5.47102       -0.73177       -4.70208
H          5.64468        4.69550        0.78984
H          6.24290       -2.22072        0.49194
H          6.60879       -3.33827       -0.83488
H          5.25366        1.59765       -3.86662
H          6.21000       -4.30413        1.72068
H          5.53432       -5.19655        0.36009
H          3.79996       -5.11942        3.04891
H         -2.84345       -1.79723        0.86694
H          1.53264       -4.20071        3.48608
H         -1.23219       -0.20858        4.50481
H          4.41177       -4.68460       -1.64162
H          3.08772       -3.59191       -2.07988
H          4.47814       -3.33149       -4.04395
H          5.96745       -3.47545       -3.11303
H         -1.32752       -1.44698       -2.66347
O         -5.52027       -0.30897       -1.53076
C         -6.37143        0.38690       -0.65300
H         -6.15649        0.14557        0.39522
H         -6.31013        1.47097       -0.80253
C         -7.77705       -0.07323       -0.98772
C         -8.82898        0.58586       -0.08956
F         -8.08118        0.23555       -2.26205
F         -7.88521       -1.40566       -0.82723
F         -8.76014        1.91443       -0.21529
F         -8.59352        0.27203        1.18694
F        -10.04708        0.18238       -0.41766
