77
TS-5a.out	Energy: -2078548.9062862
N         -1.02573       -2.08449        2.00006
O          1.45227       -1.33947        4.58531
C          0.01851       -3.53735        3.66876
O         -1.70821        0.10800        2.04910
O          0.29361        0.13593        3.41000
C         -2.68247       -2.41181       -0.36395
C         -2.77632       -1.33745        0.52070
C         -3.84762       -0.44506        0.46193
C          0.11084       -2.22184        2.90764
C         -3.68751       -2.58587       -1.30450
C         -4.74795       -1.69533       -1.37257
C          0.56041       -1.05930        3.63528
C         -1.75533       -1.08699        1.57262
C         -4.85540       -0.60956       -0.48808
H         -1.10205       -2.94701        1.45392
H         -0.84460        0.23101        2.65841
H          1.75961       -0.49090        4.93908
H          0.92665       -3.68396        4.25303
H         -0.84463       -3.56946        4.34100
H         -0.05709       -4.35747        2.94929
H         -1.82603       -3.07992       -0.36142
H         -3.87346        0.37570        1.16657
H         -3.66443       -3.40794       -2.00968
N         -5.74489       -1.92564       -2.42710
O         -6.28563       -0.95750       -2.91864
O         -5.93150       -3.08447       -2.75479
N          1.95423       -1.87377       -1.56159
O          1.80198       -2.74779        1.01052
O          4.03661       -3.37887       -1.38565
C          0.62511       -3.82976       -2.30416
O          0.00571       -1.08194       -0.71667
O          2.90185       -5.31032       -1.29969
O          0.07017       -4.03778        0.37558
C          3.07532        0.71835       -0.92365
C          1.72021        0.50318       -1.17900
C          0.85722        1.56774       -1.41755
C          1.09126       -3.38517        0.15899
C          1.63250       -3.26826       -1.30551
C          3.60126        2.01163       -0.94334
C          2.72334        3.07044       -1.23154
C          2.90400       -4.11006       -1.33117
C          1.14304       -0.88246       -1.12869
C          1.36967        2.85678       -1.44625
H          2.88447       -1.65410       -1.88240
H          1.10126       -2.46678        2.01696
H          4.77214       -4.01117       -1.37789
H          0.39832       -4.86360       -2.04678
H          1.03144       -3.78042       -3.31702
H         -0.28568       -3.23034       -2.25131
H          3.70333       -0.12436       -0.65673
H         -0.19700        1.37173       -1.57310
N          3.20215        4.45664       -1.31596
O          2.40704        5.32783       -1.00893
O          4.33331        4.64326       -1.71282
O         -5.93877        0.18791       -0.57353
C         -6.06156        1.23353        0.35827
H         -6.10029        0.85803        1.38774
H         -5.24768        1.96141        0.26146
C         -7.37502        1.91995        0.03674
C         -7.66424        3.08734        0.98596
F         -7.35529        2.41112       -1.21583
F         -8.39653        1.04880        0.14473
F         -6.68199        3.98901        0.90453
F         -7.72204        2.64219        2.24444
F         -8.81373        3.66947        0.67965
H          0.74140        3.71986       -1.63059
O          4.88604        2.30098       -0.65294
C          5.72808        1.24205       -0.27300
H          5.36261        0.73448        0.62775
H          5.85358        0.51221       -1.08152
C          7.07428        1.87125        0.02974
C          8.10553        0.83427        0.48675
F          7.56773        2.47814       -1.06499
F          6.95438        2.78234        1.01424
F          8.26755       -0.09033       -0.46488
F          7.67282        0.22429        1.59377
F          9.27254        1.40790        0.73636
